<?xml version="1.0" encoding="UTF-8"?>

<!-- generated on 2026-01-06T08:47:24.865698+01:00 by Eclipse SUMO GUI v1_25_0+0804-21839973e7f
<sumoConfiguration xmlns:xsi="http://www.w3.org/2001/XMLSchema-instance" xsi:noNamespaceSchemaLocation="http://sumo.dlr.de/xsd/sumoConfiguration.xsd">

    <input>
        <net-file value="D:\UNAM\material-SUMO-UNAM\Simulaciones\Volumen1-EstacionesDeCarga\braunschweig.net.xml.gz"/>
        <route-files value="D:\UNAM\material-SUMO-UNAM\Simulaciones\Volumen1-EstacionesDeCarga\buses.rou.xml,D:\UNAM\material-SUMO-UNAM\Simulaciones\Volumen1-EstacionesDeCarga\autos.trips.xml"/>
        <additional-files value="D:\UNAM\material-SUMO-UNAM\Simulaciones\Volumen1-EstacionesDeCarga\busStops.add.xml,D:\UNAM\material-SUMO-UNAM\Simulaciones\Volumen1-EstacionesDeCarga\chargingStations.add.xml,D:\UNAM\material-SUMO-UNAM\Simulaciones\Volumen1-EstacionesDeCarga\output.add.xml"/>
    </input>

    <output>
        <tripinfo-output value="D:\UNAM\material-SUMO-UNAM\Simulaciones\Volumen1-EstacionesDeCarga\resultados/tripinfo.xml"/>
        <stop-output value="D:\UNAM\material-SUMO-UNAM\Simulaciones\Volumen1-EstacionesDeCarga\resultados/stopinfo.xml"/>
        <statistic-output value="D:\UNAM\material-SUMO-UNAM\Simulaciones\Volumen1-EstacionesDeCarga\resultados/estadisticas.xml"/>
    </output>

    <processing>
        <ignore-route-errors value="true"/>
        <tls.actuated.jam-threshold value="30"/>
    </processing>

    <routing>
        <device.rerouting.adaptation-steps value="18"/>
        <device.rerouting.adaptation-interval value="10"/>
    </routing>

    <report>
        <verbose value="true"/>
        <duration-log.statistics value="true"/>
        <no-step-log value="true"/>
    </report>

    <gui_only>
        <gui-settings-file value="D:\UNAM\material-SUMO-UNAM\Simulaciones\Volumen1-EstacionesDeCarga\simulacion.view.xml"/>
    </gui_only>

</sumoConfiguration>
-->

<tripinfos xmlns:xsi="http://www.w3.org/2001/XMLSchema-instance" xsi:noNamespaceSchemaLocation="http://sumo.dlr.de/xsd/tripinfo_file.xsd">
    <tripinfo id="veh54" depart="53.00" departLane="-8078949#10_0" departPos="5.10" departSpeed="0.00" departDelay="0.15" arrival="124.00" arrivalLane="319188808#2_2" arrivalPos="159.92" arrivalSpeed="12.86" duration="71.00" routeLength="645.53" waitingTime="1.00" waitingCount="1" stopTime="0.00" timeLoss="13.47" rerouteNo="1" devices="tripinfo_veh54 routing_veh54" vType="veh_passenger" speedFactor="1.00" vaporized=""/>
    <tripinfo id="pt_tram_10:0.0" depart="6.00" departLane="317671622#0_0" departPos="2.08" departSpeed="0.00" departDelay="0.00" arrival="126.00" arrivalLane="1054520053#1_0" arrivalPos="8.59" arrivalSpeed="8.78" duration="120.00" routeLength="116.15" waitingTime="53.00" waitingCount="1" stopTime="30.00" timeLoss="64.26" rerouteNo="0" devices="tripinfo_pt_tram_10:0.0" vType="pt_tram" speedFactor="1.00" vaporized=""/>
    <tripinfo id="veh71" depart="70.00" departLane="9887589#0_0" departPos="5.10" departSpeed="8.10" departDelay="0.51" arrival="143.00" arrivalLane="320399277_0" arrivalPos="25.46" arrivalSpeed="12.30" duration="73.00" routeLength="617.43" waitingTime="0.00" waitingCount="0" stopTime="0.00" timeLoss="7.51" rerouteNo="1" devices="tripinfo_veh71 routing_veh71" vType="veh_passenger" speedFactor="0.97" vaporized=""/>
    <tripinfo id="veh66" depart="65.00" departLane="221632396#5_1" departPos="0.20" departSpeed="0.00" departDelay="0.41" arrival="171.00" arrivalLane="28113494#15_0" arrivalPos="20.71" arrivalSpeed="6.91" duration="106.00" routeLength="446.55" waitingTime="39.00" waitingCount="1" stopTime="0.00" timeLoss="49.23" rerouteNo="1" devices="tripinfo_veh66 routing_veh66" vType="veh_passenger" speedFactor="0.91" vaporized=""/>
    <tripinfo id="veh107" depart="105.00" departLane="-159245989#9_0" departPos="5.10" departSpeed="0.00" departDelay="0.28" arrival="190.00" arrivalLane="-4531516#7_0" arrivalPos="22.89" arrivalSpeed="8.15" duration="85.00" routeLength="645.44" waitingTime="0.00" waitingCount="0" stopTime="0.00" timeLoss="9.45" rerouteNo="1" devices="tripinfo_veh107 routing_veh107" vType="veh_passenger" speedFactor="1.03" vaporized=""/>
    <tripinfo id="pt_tram_10:1.0" depart="11.00" departLane="1054520052#0_0" departPos="10.27" departSpeed="0.00" departDelay="0.00" arrival="196.00" arrivalLane="1018903659#1_0" arrivalPos="2.13" arrivalSpeed="5.00" duration="185.00" routeLength="531.14" waitingTime="44.00" waitingCount="2" stopTime="59.00" timeLoss="87.74" rerouteNo="0" devices="tripinfo_pt_tram_10:1.0" vType="pt_tram" speedFactor="1.00" vaporized=""/>
    <tripinfo id="veh3" depart="3.00" departLane="62089686#1_0" departPos="5.10" departSpeed="0.00" departDelay="0.06" arrival="207.00" arrivalLane="-218253720#11_0" arrivalPos="14.92" arrivalSpeed="8.62" duration="204.00" routeLength="1684.86" waitingTime="32.00" waitingCount="2" stopTime="0.00" timeLoss="61.51" rerouteNo="1" devices="tripinfo_veh3 routing_veh3" vType="veh_passenger" speedFactor="1.08" vaporized=""/>
    <tripinfo id="veh5" depart="5.00" departLane="-5134806#1_0" departPos="5.10" departSpeed="0.00" departDelay="0.11" arrival="210.00" arrivalLane="238863539#2_0" arrivalPos="114.78" arrivalSpeed="10.81" duration="205.00" routeLength="1546.67" waitingTime="16.00" waitingCount="4" stopTime="0.00" timeLoss="47.32" rerouteNo="1" devices="tripinfo_veh5 routing_veh5" vType="veh_passenger" speedFactor="0.83" vaporized=""/>
    <tripinfo id="veh15" depart="15.00" departLane="1174323266#3_0" departPos="5.10" departSpeed="0.00" departDelay="0.32" arrival="210.00" arrivalLane="28177559#0_1" arrivalPos="18.67" arrivalSpeed="8.32" duration="195.00" routeLength="1357.62" waitingTime="31.00" waitingCount="5" stopTime="0.00" timeLoss="79.60" rerouteNo="1" devices="tripinfo_veh15 routing_veh15" vType="veh_passenger" speedFactor="0.93" vaporized=""/>
    <tripinfo id="veh8" depart="8.00" departLane="-5134904#4_0" departPos="5.10" departSpeed="7.81" departDelay="0.17" arrival="222.00" arrivalLane="314533278#0_0" arrivalPos="11.22" arrivalSpeed="12.23" duration="214.00" routeLength="1788.85" waitingTime="7.00" waitingCount="1" stopTime="0.00" timeLoss="30.84" rerouteNo="1" devices="tripinfo_veh8 routing_veh8" vType="veh_passenger" speedFactor="0.94" vaporized=""/>
    <tripinfo id="veh30" depart="30.00" departLane="537379512#0_0" departPos="5.10" departSpeed="0.00" departDelay="0.64" arrival="233.00" arrivalLane="5021498#0_0" arrivalPos="3.33" arrivalSpeed="16.31" duration="203.00" routeLength="1804.96" waitingTime="45.00" waitingCount="4" stopTime="0.00" timeLoss="89.53" rerouteNo="1" devices="tripinfo_veh30 routing_veh30" vType="veh_passenger" speedFactor="1.18" vaporized=""/>
    <tripinfo id="veh104" depart="102.00" departLane="8110777#7_0" departPos="5.10" departSpeed="0.00" departDelay="0.22" arrival="235.00" arrivalLane="30687691#5_0" arrivalPos="10.98" arrivalSpeed="6.46" duration="133.00" routeLength="923.85" waitingTime="0.00" waitingCount="0" stopTime="0.00" timeLoss="15.79" rerouteNo="1" devices="tripinfo_veh104 routing_veh104" vType="veh_passenger" speedFactor="0.89" vaporized=""/>
    <tripinfo id="pt_tram_2:0.0" depart="137.00" departLane="317671622#0_0" departPos="2.08" departSpeed="0.00" departDelay="0.00" arrival="238.00" arrivalLane="1054520053#1_0" arrivalPos="8.59" arrivalSpeed="8.78" duration="101.00" routeLength="116.15" waitingTime="34.00" waitingCount="1" stopTime="30.00" timeLoss="45.26" rerouteNo="0" devices="tripinfo_pt_tram_2:0.0" vType="pt_tram" speedFactor="1.00" vaporized=""/>
    <tripinfo id="veh90" depart="89.00" departLane="154363383#4_0" departPos="5.10" departSpeed="0.00" departDelay="0.92" arrival="239.00" arrivalLane="-8078949#0_0" arrivalPos="38.79" arrivalSpeed="8.04" duration="150.00" routeLength="1157.63" waitingTime="0.00" waitingCount="0" stopTime="0.00" timeLoss="15.39" rerouteNo="1" devices="tripinfo_veh90 routing_veh90" vType="veh_passenger" speedFactor="1.02" vaporized=""/>
    <tripinfo id="pt_train_RB_40:0.0" depart="60.00" departLane="8080950#1_0" departPos="135.10" departSpeed="0.00" departDelay="0.00" arrival="247.00" arrivalLane="42352341#2_0" arrivalPos="567.32" arrivalSpeed="29.50" duration="187.00" routeLength="1912.32" waitingTime="0.00" waitingCount="0" stopTime="30.00" timeLoss="105.70" rerouteNo="0" devices="tripinfo_pt_train_RB_40:0.0" vType="pt_train" speedFactor="1.00" vaporized=""/>
    <tripinfo id="veh89" depart="88.00" departLane="-392700010#2_0" departPos="4.20" departSpeed="0.00" departDelay="0.90" arrival="248.00" arrivalLane="206391417#0_0" arrivalPos="2.27" arrivalSpeed="4.70" duration="160.00" routeLength="1128.95" waitingTime="31.00" waitingCount="5" stopTime="0.00" timeLoss="69.83" rerouteNo="1" devices="tripinfo_veh89 routing_veh89" vType="veh_passenger" speedFactor="1.02" vaporized=""/>
    <tripinfo id="veh22" depart="22.00" departLane="318881710#2_1" departPos="5.10" departSpeed="0.00" departDelay="0.47" arrival="251.00" arrivalLane="1168330288#6_0" arrivalPos="11.44" arrivalSpeed="7.69" duration="229.00" routeLength="1241.73" waitingTime="91.00" waitingCount="4" stopTime="0.00" timeLoss="122.94" rerouteNo="1" devices="tripinfo_veh22 routing_veh22" vType="veh_passenger" speedFactor="0.97" vaporized=""/>
    <tripinfo id="veh85" depart="84.00" departLane="385335101#1_1" departPos="5.10" departSpeed="0.00" departDelay="0.81" arrival="252.00" arrivalLane="32905536#0_0" arrivalPos="8.55" arrivalSpeed="9.60" duration="168.00" routeLength="1715.56" waitingTime="16.00" waitingCount="2" stopTime="0.00" timeLoss="39.83" rerouteNo="1" devices="tripinfo_veh85 routing_veh85" vType="veh_passenger" speedFactor="0.98" vaporized=""/>
    <tripinfo id="veh63" depart="62.00" departLane="-172523949#3_0" departPos="5.10" departSpeed="0.00" departDelay="0.34" arrival="257.00" arrivalLane="23209153#1_0" arrivalPos="9.28" arrivalSpeed="9.01" duration="195.00" routeLength="1388.91" waitingTime="39.00" waitingCount="2" stopTime="0.00" timeLoss="68.47" rerouteNo="1" devices="tripinfo_veh63 routing_veh63" vType="veh_passenger" speedFactor="0.99" vaporized=""/>
    <tripinfo id="veh77" depart="76.00" departLane="-5140732#4_0" departPos="5.10" departSpeed="0.00" departDelay="0.64" arrival="269.00" arrivalLane="771996331#2_0" arrivalPos="97.17" arrivalSpeed="12.90" duration="193.00" routeLength="1408.81" waitingTime="46.00" waitingCount="4" stopTime="0.00" timeLoss="80.35" rerouteNo="1" devices="tripinfo_veh77 routing_veh77" vType="veh_passenger" speedFactor="0.98" vaporized=""/>
    <tripinfo id="veh114" depart="112.00" departLane="-526422259#0_0" departPos="5.10" departSpeed="0.00" departDelay="0.43" arrival="274.00" arrivalLane="1313634006#2_0" arrivalPos="41.79" arrivalSpeed="8.03" duration="162.00" routeLength="1487.02" waitingTime="4.00" waitingCount="1" stopTime="0.00" timeLoss="36.74" rerouteNo="1" devices="tripinfo_veh114 routing_veh114" vType="veh_passenger" speedFactor="1.10" vaporized=""/>
    <tripinfo id="veh159" depart="156.00" departLane="319188813#3_1" departPos="5.10" departSpeed="0.00" departDelay="0.39" arrival="286.00" arrivalLane="1367648250#0_1" arrivalPos="2.89" arrivalSpeed="15.04" duration="130.00" routeLength="1058.72" waitingTime="38.00" waitingCount="3" stopTime="0.00" timeLoss="63.16" rerouteNo="1" devices="tripinfo_veh159 routing_veh159" vType="veh_passenger" speedFactor="1.14" vaporized=""/>
    <tripinfo id="veh154" depart="151.00" departLane="206865820#0_0" departPos="5.10" departSpeed="0.00" departDelay="0.28" arrival="288.00" arrivalLane="10057839#1_0" arrivalPos="32.87" arrivalSpeed="4.73" duration="137.00" routeLength="670.68" waitingTime="37.00" waitingCount="1" stopTime="0.00" timeLoss="56.41" rerouteNo="1" devices="tripinfo_veh154 routing_veh154" vType="veh_passenger" speedFactor="1.06" vaporized=""/>
    <tripinfo id="veh21" depart="21.00" departLane="-225710049#11_0" departPos="5.10" departSpeed="0.00" departDelay="0.45" arrival="291.00" arrivalLane="-8078948#4_0" arrivalPos="30.42" arrivalSpeed="8.08" duration="270.00" routeLength="2034.07" waitingTime="57.00" waitingCount="3" stopTime="0.00" timeLoss="89.61" rerouteNo="1" devices="tripinfo_veh21 routing_veh21" vType="veh_passenger" speedFactor="1.01" vaporized=""/>
    <tripinfo id="veh198" depart="194.00" departLane="-23210003#2_0" departPos="5.10" departSpeed="0.00" departDelay="0.22" arrival="293.00" arrivalLane="165574143#2_0" arrivalPos="24.33" arrivalSpeed="8.38" duration="99.00" routeLength="850.01" waitingTime="0.00" waitingCount="0" stopTime="0.00" timeLoss="12.66" rerouteNo="1" devices="tripinfo_veh198 routing_veh198" vType="veh_passenger" speedFactor="1.06" vaporized=""/>
    <tripinfo id="veh73" depart="72.00" departLane="-23783940#0_0" departPos="5.10" departSpeed="0.00" departDelay="0.56" arrival="295.00" arrivalLane="-537379512#1_0" arrivalPos="40.93" arrivalSpeed="14.65" duration="223.00" routeLength="1575.50" waitingTime="9.00" waitingCount="3" stopTime="0.00" timeLoss="60.98" rerouteNo="1" devices="tripinfo_veh73 routing_veh73" vType="veh_passenger" speedFactor="1.06" vaporized=""/>
    <tripinfo id="veh88" depart="87.00" departLane="578374650#1_0" departPos="0.20" departSpeed="0.00" departDelay="0.88" arrival="295.00" arrivalLane="-7727105#1_0" arrivalPos="2.50" arrivalSpeed="5.03" duration="208.00" routeLength="1838.33" waitingTime="11.00" waitingCount="3" stopTime="0.00" timeLoss="42.14" rerouteNo="1" devices="tripinfo_veh88 routing_veh88" vType="veh_passenger" speedFactor="1.01" vaporized=""/>
    <tripinfo id="pt_train_RB_47:0.0" depart="253.00" departLane="314921093_0" departPos="135.10" departSpeed="0.00" departDelay="0.00" arrival="295.00" arrivalLane="314921093_0" arrivalPos="149.88" arrivalSpeed="0.25" duration="42.00" routeLength="14.78" waitingTime="0.00" waitingCount="0" stopTime="30.00" timeLoss="11.66" rerouteNo="0" devices="tripinfo_pt_train_RB_47:0.0" vType="pt_train" speedFactor="1.00" vaporized=""/>
    <tripinfo id="veh61" depart="60.00" departLane="-8118975#1_0" departPos="5.10" departSpeed="0.00" departDelay="0.30" arrival="297.00" arrivalLane="-1412479341_0" arrivalPos="23.34" arrivalSpeed="9.14" duration="237.00" routeLength="1061.62" waitingTime="95.00" waitingCount="6" stopTime="0.00" timeLoss="141.76" rerouteNo="1" devices="tripinfo_veh61 routing_veh61" vType="veh_passenger" speedFactor="1.12" vaporized=""/>
    <tripinfo id="pt_tram_1:0.0" depart="211.00" departLane="317671622#0_0" departPos="2.08" departSpeed="0.00" departDelay="8.00" arrival="299.00" arrivalLane="1054520053#1_0" arrivalPos="8.59" arrivalSpeed="8.78" duration="88.00" routeLength="116.15" waitingTime="29.00" waitingCount="1" stopTime="22.00" timeLoss="40.26" rerouteNo="0" devices="tripinfo_pt_tram_1:0.0" vType="pt_tram" speedFactor="1.00" vaporized=""/>
    <tripinfo id="veh120" depart="118.00" departLane="-719032111#8_0" departPos="5.10" departSpeed="0.00" departDelay="0.56" arrival="302.00" arrivalLane="8025695#2_0" arrivalPos="50.74" arrivalSpeed="6.94" duration="184.00" routeLength="894.53" waitingTime="20.00" waitingCount="1" stopTime="0.00" timeLoss="49.90" rerouteNo="1" devices="tripinfo_veh120 routing_veh120" vType="veh_passenger" speedFactor="0.94" vaporized=""/>
    <tripinfo id="veh28" depart="28.00" departLane="945788876#4_0" departPos="5.10" departSpeed="0.00" departDelay="0.60" arrival="304.00" arrivalLane="319188809#4_1" arrivalPos="22.62" arrivalSpeed="15.16" duration="276.00" routeLength="2604.14" waitingTime="40.00" waitingCount="6" stopTime="0.00" timeLoss="96.27" rerouteNo="1" devices="tripinfo_veh28 routing_veh28" vType="veh_passenger" speedFactor="1.13" vaporized=""/>
    <tripinfo id="veh265" depart="260.00" departLane="-23201670#0_0" departPos="5.10" departSpeed="0.00" departDelay="0.65" arrival="306.00" arrivalLane="8078950#6_0" arrivalPos="7.78" arrivalSpeed="7.09" duration="46.00" routeLength="379.07" waitingTime="0.00" waitingCount="0" stopTime="0.00" timeLoss="6.84" rerouteNo="1" devices="tripinfo_veh265 routing_veh265" vType="veh_passenger" speedFactor="0.96" vaporized=""/>
    <tripinfo id="veh161" depart="158.00" departLane="8118975#5_0" departPos="5.10" departSpeed="0.00" departDelay="0.43" arrival="312.00" arrivalLane="-409312560#2_0" arrivalPos="25.03" arrivalSpeed="8.11" duration="154.00" routeLength="696.41" waitingTime="66.00" waitingCount="2" stopTime="0.00" timeLoss="85.77" rerouteNo="1" devices="tripinfo_veh161 routing_veh161" vType="veh_passenger" speedFactor="1.08" vaporized=""/>
    <tripinfo id="pt_train_RB46:0.0" depart="222.00" departLane="30642811#0_0" departPos="135.10" departSpeed="0.00" departDelay="0.00" arrival="315.00" arrivalLane="-42418124_0" arrivalPos="1.43" arrivalSpeed="12.50" duration="93.00" routeLength="332.78" waitingTime="0.00" waitingCount="0" stopTime="30.00" timeLoss="44.55" rerouteNo="0" devices="tripinfo_pt_train_RB46:0.0" vType="pt_train" speedFactor="1.00" vaporized=""/>
    <tripinfo id="veh32" depart="32.00" departLane="-917102461_0" departPos="5.10" departSpeed="13.96" departDelay="0.68" arrival="318.00" arrivalLane="-8074201#1_0" arrivalPos="23.13" arrivalSpeed="8.33" duration="286.00" routeLength="2519.29" waitingTime="12.00" waitingCount="3" stopTime="0.00" timeLoss="51.39" rerouteNo="1" devices="tripinfo_veh32 routing_veh32" vType="veh_passenger" speedFactor="1.01" vaporized=""/>
    <tripinfo id="veh162" depart="159.00" departLane="8078962#6_0" departPos="5.10" departSpeed="0.00" departDelay="0.45" arrival="319.00" arrivalLane="-8074165#0_0" arrivalPos="21.39" arrivalSpeed="7.18" duration="160.00" routeLength="1245.04" waitingTime="0.00" waitingCount="0" stopTime="0.00" timeLoss="20.66" rerouteNo="1" devices="tripinfo_veh162 routing_veh162" vType="veh_passenger" speedFactor="0.99" vaporized=""/>
    <tripinfo id="veh31" depart="31.00" departLane="-5140733#0_0" departPos="0.20" departSpeed="0.00" departDelay="0.66" arrival="320.00" arrivalLane="-1138875094#0_0" arrivalPos="59.55" arrivalSpeed="8.63" duration="289.00" routeLength="2320.65" waitingTime="55.00" waitingCount="3" stopTime="0.00" timeLoss="94.87" rerouteNo="1" devices="tripinfo_veh31 routing_veh31" vType="veh_passenger" speedFactor="1.15" vaporized=""/>
    <tripinfo id="veh50" depart="49.00" departLane="191875413#0_3" departPos="5.10" departSpeed="0.00" departDelay="0.07" arrival="327.00" arrivalLane="8074412#10_0" arrivalPos="13.56" arrivalSpeed="5.86" duration="278.00" routeLength="1676.72" waitingTime="83.00" waitingCount="4" stopTime="0.00" timeLoss="122.44" rerouteNo="1" devices="tripinfo_veh50 routing_veh50" vType="veh_passenger" speedFactor="0.85" vaporized=""/>
    <tripinfo id="veh72" depart="71.00" departLane="166445407#2_3" departPos="3.80" departSpeed="0.00" departDelay="0.54" arrival="327.00" arrivalLane="246973997#2_1" arrivalPos="27.08" arrivalSpeed="12.30" duration="256.00" routeLength="1093.09" waitingTime="138.00" waitingCount="4" stopTime="0.00" timeLoss="170.96" rerouteNo="1" devices="tripinfo_veh72 routing_veh72" vType="veh_passenger" speedFactor="0.94" vaporized=""/>
    <tripinfo id="veh253" depart="248.00" departLane="-23255477#3_0" departPos="5.10" departSpeed="8.16" departDelay="0.40" arrival="332.00" arrivalLane="-1131964871#2_0" arrivalPos="56.71" arrivalSpeed="7.43" duration="84.00" routeLength="617.86" waitingTime="0.00" waitingCount="0" stopTime="0.00" timeLoss="7.89" rerouteNo="1" devices="tripinfo_veh253 routing_veh253" vType="veh_passenger" speedFactor="0.98" vaporized=""/>
    <tripinfo id="veh130" depart="128.00" departLane="378166624#7_0" departPos="5.10" departSpeed="0.00" departDelay="0.77" arrival="333.00" arrivalLane="-5134912#2_0" arrivalPos="16.11" arrivalSpeed="7.81" duration="205.00" routeLength="1376.25" waitingTime="46.00" waitingCount="4" stopTime="0.00" timeLoss="88.43" rerouteNo="1" devices="tripinfo_veh130 routing_veh130" vType="veh_passenger" speedFactor="1.03" vaporized=""/>
    <tripinfo id="veh210" depart="206.00" departLane="-563616438#1_0" departPos="5.10" departSpeed="0.00" departDelay="0.48" arrival="335.00" arrivalLane="319188807_1" arrivalPos="79.08" arrivalSpeed="14.14" duration="129.00" routeLength="1266.26" waitingTime="13.00" waitingCount="1" stopTime="0.00" timeLoss="45.23" rerouteNo="1" devices="tripinfo_veh210 routing_veh210" vType="veh_passenger" speedFactor="1.10" vaporized=""/>
    <tripinfo id="veh231" depart="227.00" departLane="1299239465_0" departPos="0.20" departSpeed="0.00" departDelay="0.93" arrival="336.00" arrivalLane="-37976385#1_0" arrivalPos="31.22" arrivalSpeed="15.45" duration="109.00" routeLength="1106.00" waitingTime="0.00" waitingCount="0" stopTime="0.00" timeLoss="12.20" rerouteNo="1" devices="tripinfo_veh231 routing_veh231" vType="veh_passenger" speedFactor="1.14" vaporized=""/>
    <tripinfo id="veh177" depart="174.00" departLane="-24644179#6_0" departPos="5.10" departSpeed="0.00" departDelay="0.77" arrival="338.00" arrivalLane="159245986#7_0" arrivalPos="23.79" arrivalSpeed="8.02" duration="164.00" routeLength="1242.98" waitingTime="0.00" waitingCount="0" stopTime="0.00" timeLoss="18.31" rerouteNo="1" devices="tripinfo_veh177 routing_veh177" vType="veh_passenger" speedFactor="1.03" vaporized=""/>
    <tripinfo id="veh191" depart="187.00" departLane="-5563259#2_0" departPos="5.10" departSpeed="0.00" departDelay="0.07" arrival="338.00" arrivalLane="230951131#32_0" arrivalPos="12.84" arrivalSpeed="6.93" duration="151.00" routeLength="936.43" waitingTime="30.00" waitingCount="3" stopTime="0.00" timeLoss="50.81" rerouteNo="1" devices="tripinfo_veh191 routing_veh191" vType="veh_passenger" speedFactor="0.93" vaporized=""/>
    <tripinfo id="veh60" depart="59.00" departLane="608604363#2_0" departPos="5.10" departSpeed="0.00" departDelay="0.28" arrival="339.00" arrivalLane="525452881#1_1" arrivalPos="76.94" arrivalSpeed="14.07" duration="280.00" routeLength="1339.96" waitingTime="138.00" waitingCount="5" stopTime="0.00" timeLoss="175.77" rerouteNo="1" devices="tripinfo_veh60 routing_veh60" vType="veh_passenger" speedFactor="1.08" vaporized=""/>
    <tripinfo id="veh149" depart="146.00" departLane="5134658#5_0" departPos="5.10" departSpeed="0.00" departDelay="0.18" arrival="342.00" arrivalLane="59383254#18_1" arrivalPos="11.35" arrivalSpeed="13.42" duration="196.00" routeLength="1012.15" waitingTime="94.00" waitingCount="2" stopTime="0.00" timeLoss="118.03" rerouteNo="1" devices="tripinfo_veh149 routing_veh149" vType="veh_passenger" speedFactor="1.04" vaporized=""/>
    <tripinfo id="pt_train_RB46:1.0" depart="298.00" departLane="30642811#0_0" departPos="135.10" departSpeed="0.00" departDelay="0.00" arrival="342.00" arrivalLane="30642811#0_0" arrivalPos="154.56" arrivalSpeed="0.25" duration="44.00" routeLength="19.46" waitingTime="0.00" waitingCount="0" stopTime="30.00" timeLoss="13.56" rerouteNo="0" devices="tripinfo_pt_train_RB46:1.0" vType="pt_train" speedFactor="1.00" vaporized=""/>
    <tripinfo id="pt_train_ICE_12:0.0" depart="38.00" departLane="25258777#0_0" departPos="135.10" departSpeed="0.00" departDelay="0.00" arrival="344.00" arrivalLane="42402853#1_0" arrivalPos="326.60" arrivalSpeed="33.33" duration="306.00" routeLength="4377.09" waitingTime="0.00" waitingCount="0" stopTime="30.00" timeLoss="167.38" rerouteNo="0" devices="tripinfo_pt_train_ICE_12:0.0" vType="pt_train" speedFactor="1.00" vaporized=""/>
    <tripinfo id="veh94" depart="92.00" departLane="8118970#1_0" departPos="2.00" departSpeed="0.00" departDelay="0.00" arrival="345.00" arrivalLane="7975424#3_1" arrivalPos="21.76" arrivalSpeed="14.72" duration="253.00" routeLength="1696.04" waitingTime="96.00" waitingCount="4" stopTime="0.00" timeLoss="138.23" rerouteNo="1" devices="tripinfo_veh94 routing_veh94" vType="veh_passenger" speedFactor="1.09" vaporized=""/>
    <tripinfo id="veh215" depart="211.00" departLane="25783890#2_0" departPos="5.10" departSpeed="0.00" departDelay="0.58" arrival="346.00" arrivalLane="-314533279#0_0" arrivalPos="32.38" arrivalSpeed="15.08" duration="135.00" routeLength="1525.99" waitingTime="6.00" waitingCount="1" stopTime="0.00" timeLoss="28.90" rerouteNo="1" devices="tripinfo_veh215 routing_veh215" vType="veh_passenger" speedFactor="1.09" vaporized=""/>
    <tripinfo id="veh25" depart="25.00" departLane="320364657#0_2" departPos="5.10" departSpeed="0.00" departDelay="0.53" arrival="352.00" arrivalLane="316764357_0" arrivalPos="62.52" arrivalSpeed="11.97" duration="327.00" routeLength="1915.90" waitingTime="132.00" waitingCount="4" stopTime="0.00" timeLoss="167.46" rerouteNo="1" devices="tripinfo_veh25 routing_veh25" vType="veh_passenger" speedFactor="0.87" vaporized=""/>
    <tripinfo id="veh84" depart="83.00" departLane="-218253719#2_0" departPos="5.10" departSpeed="0.00" departDelay="0.79" arrival="353.00" arrivalLane="167920428#4_1" arrivalPos="33.91" arrivalSpeed="14.67" duration="270.00" routeLength="1734.07" waitingTime="93.00" waitingCount="6" stopTime="0.00" timeLoss="141.47" rerouteNo="1" devices="tripinfo_veh84 routing_veh84" vType="veh_passenger" speedFactor="1.15" vaporized=""/>
    <tripinfo id="veh9" depart="9.00" departLane="5134731#3_0" departPos="0.20" departSpeed="0.00" departDelay="0.19" arrival="357.00" arrivalLane="374169551#1_1" arrivalPos="27.53" arrivalSpeed="11.71" duration="348.00" routeLength="2070.03" waitingTime="109.00" waitingCount="7" stopTime="0.00" timeLoss="163.48" rerouteNo="1" devices="tripinfo_veh9 routing_veh9" vType="veh_passenger" speedFactor="0.86" vaporized=""/>
    <tripinfo id="veh41" depart="41.00" departLane="-23258242#2_0" departPos="5.10" departSpeed="0.00" departDelay="0.87" arrival="357.00" arrivalLane="317365377#0_0" arrivalPos="80.73" arrivalSpeed="12.41" duration="316.00" routeLength="1756.94" waitingTime="111.00" waitingCount="3" stopTime="0.00" timeLoss="139.91" rerouteNo="1" devices="tripinfo_veh41 routing_veh41" vType="veh_passenger" speedFactor="0.96" vaporized=""/>
    <tripinfo id="pt_tram_2:1.0" depart="137.00" departLane="1054520052#0_0" departPos="10.27" departSpeed="0.00" departDelay="0.00" arrival="357.00" arrivalLane="1018903659#1_0" arrivalPos="2.13" arrivalSpeed="11.25" duration="220.00" routeLength="531.14" waitingTime="93.00" waitingCount="3" stopTime="42.00" timeLoss="139.14" rerouteNo="0" devices="tripinfo_pt_tram_2:1.0" vType="pt_tram" speedFactor="1.00" vaporized=""/>
    <tripinfo id="veh164" depart="161.00" departLane="385335099#2_1" departPos="5.10" departSpeed="0.00" departDelay="0.50" arrival="359.00" arrivalLane="103270688#10_0" arrivalPos="16.25" arrivalSpeed="8.37" duration="198.00" routeLength="1560.39" waitingTime="33.00" waitingCount="2" stopTime="0.00" timeLoss="72.40" rerouteNo="1" devices="tripinfo_veh164 routing_veh164" vType="veh_passenger" speedFactor="1.05" vaporized=""/>
    <tripinfo id="pt_train_RB44:0.0" depart="237.00" departLane="30240668#1_0" departPos="135.10" departSpeed="0.00" departDelay="0.00" arrival="359.00" arrivalLane="-42418124_0" arrivalPos="1.43" arrivalSpeed="13.00" duration="122.00" routeLength="515.66" waitingTime="0.00" waitingCount="0" stopTime="30.00" timeLoss="76.74" rerouteNo="0" devices="tripinfo_pt_train_RB44:0.0" vType="pt_train" speedFactor="1.00" vaporized=""/>
    <tripinfo id="pt_train_ICE_12:1.0" depart="65.00" departLane="47058066_0" departPos="135.10" departSpeed="0.00" departDelay="0.00" arrival="360.00" arrivalLane="42352341#2_0" arrivalPos="567.32" arrivalSpeed="29.00" duration="295.00" routeLength="4030.90" waitingTime="0.00" waitingCount="0" stopTime="30.00" timeLoss="155.70" rerouteNo="0" devices="tripinfo_pt_train_ICE_12:1.0" vType="pt_train" speedFactor="1.00" vaporized=""/>
    <tripinfo id="veh67" depart="66.00" departLane="-719032111#6_0" departPos="5.10" departSpeed="0.00" departDelay="0.43" arrival="361.00" arrivalLane="60151069#5_0" arrivalPos="5.35" arrivalSpeed="7.40" duration="295.00" routeLength="1870.09" waitingTime="3.00" waitingCount="2" stopTime="0.00" timeLoss="41.51" rerouteNo="1" devices="tripinfo_veh67 routing_veh67" vType="veh_passenger" speedFactor="0.91" vaporized=""/>
    <tripinfo id="pt_tram_2:3.0" depart="272.00" departLane="317671622#0_0" departPos="2.08" departSpeed="0.00" departDelay="8.00" arrival="361.00" arrivalLane="1054520053#1_0" arrivalPos="8.59" arrivalSpeed="8.78" duration="89.00" routeLength="116.15" waitingTime="30.00" waitingCount="1" stopTime="22.00" timeLoss="41.26" rerouteNo="0" devices="tripinfo_pt_tram_2:3.0" vType="pt_tram" speedFactor="1.00" vaporized=""/>
    <tripinfo id="veh113" depart="111.00" departLane="-4531517#24_0" departPos="5.10" departSpeed="0.00" departDelay="0.41" arrival="362.00" arrivalLane="37976517#1_0" arrivalPos="4.14" arrivalSpeed="7.28" duration="251.00" routeLength="1653.65" waitingTime="61.00" waitingCount="3" stopTime="0.00" timeLoss="97.08" rerouteNo="1" devices="tripinfo_veh113 routing_veh113" vType="veh_passenger" speedFactor="1.01" vaporized=""/>
    <tripinfo id="veh26" depart="26.00" departLane="-35576963#1_0" departPos="5.10" departSpeed="0.00" departDelay="0.55" arrival="363.00" arrivalLane="385335105_0" arrivalPos="3.74" arrivalSpeed="12.06" duration="337.00" routeLength="2890.63" waitingTime="24.00" waitingCount="2" stopTime="0.00" timeLoss="61.88" rerouteNo="1" devices="tripinfo_veh26 routing_veh26" vType="veh_passenger" speedFactor="0.92" vaporized=""/>
    <tripinfo id="veh20" depart="20.00" departLane="-159245989#4_0" departPos="5.10" departSpeed="0.00" departDelay="0.43" arrival="364.00" arrivalLane="-577024355_0" arrivalPos="0.20" arrivalSpeed="12.95" duration="344.00" routeLength="1666.98" waitingTime="169.00" waitingCount="7" stopTime="0.00" timeLoss="212.05" rerouteNo="1" devices="tripinfo_veh20 routing_veh20" vType="veh_passenger" speedFactor="1.02" vaporized=""/>